% Model:              core_cross_section_solved.mph
% Version:            COMSOL 6.4.0.343
% Date:               Jul 3 2026, 16:19
% Dimension:          2
% Nodes:              6568
% Expressions:        1
% Description:        Surface
% x                       y                        Magnetic flux density norm
-0.0131921089004806       -0.007139206031335735    0.07778187006508007
-0.012960293161574174     -0.0067988776039305445   0.07495912859238901
-0.012728477422667746     -0.006458549176525354    0.0724200370823572
-0.013384674743666544     -0.006771239144894687    0.07766556620838516
-0.013147325191301431     -0.006429263663796717    0.07491267987542494
-0.01290997563893631      -0.0060872881826987465   0.07241301603157313
-0.013566172959935112     -0.006399978151068077    0.07767285932887158
-0.01332328959411131      -0.006056355616277329    0.0749546133431024
-0.013736603549286306     -0.006025423049855908    0.07778244506639209
-0.012779547966152953     -0.00785382393172674     0.07766624846157788
-0.012991084195422664     -0.007498820035269788    0.07767166983416599
-0.012778213064243604     -0.00713553361718013     0.07495725585097707
-0.01347676412657515      -0.00570587050016002     0.07495614000303552
-0.013216924703863991     -0.005386317950464131    0.07241403908554499
-0.012957085281152837     -0.005066765400768243    0.07018572737233905
-0.013898301575157028     -0.005642358465565125    0.07766504910779225
-0.013632722664973904     -0.005321848697915605    0.07490900071236672
-0.013367143754790778     -0.005001338930266083    0.07240520743938986
-0.01404852062608381      -0.005257379445367075    0.07767422789874898
-0.013777202228428721     -0.004935912459763924    0.07495051906679417
-0.014187260702066658     -0.004870485989261762    0.07778327954160201
-0.013901082346548937     -0.004573903800956782    0.07495178033078481
-0.013614903991031213     -0.0042773216126518005   0.0724053606838728
-0.01332872563551349      -0.003980739424346821    0.07017260760506198
-0.014316922524979        -0.0044748764768733195   0.07766466363560942
-0.014024873751757889     -0.0041780521481311755   0.07490388838077792
-0.01373282497853677      -0.003881227819389031    0.07239465782769466
-0.014434843512484558     -0.004078782683610548    0.07767578992534975
-0.014136924321560055     -0.0037817162144312424   0.07494496513357357
-0.01454102366458333      -0.0036822046094734514   0.07778424507047497
-0.014230558290506486     -0.003410467450848954    0.07494723504127028
-0.013920092916429642     -0.0031387302922244557   0.07239624047922377
-0.013609627542352799     -0.002866993133599958    0.07015889823824539
-0.014637683436701193     -0.0032767061813997063   0.07766423968432919
-0.014321294705538756     -0.003005460707423249    0.07489853635407705
-0.014004905974376322     -0.0027342152334467905   0.07238363457871294
-0.014722496494647866     -0.002872191122622041    0.07767744537514121
-0.014400184406399844     -0.002601437333293624    0.07493915793974024
-0.01479546283842336      -0.002468659433140456    0.07778522037959476
-0.014462924455117446     -0.002223427766199589    0.07494285151915717
-0.014130386071811525     -0.001978196099258722    0.0723874333255829
-0.013797847688505607     -0.0017329644323178554   0.0701456721211552
-0.01485835354986638      -0.002056136031240983    0.07766373584296016
-0.014519923084704307     -0.0018121408433007017   0.07489334005662643
-0.01418149261954223      -0.0015681456553604195   0.07237289758327214
-0.01490946009759708      -0.00164608558734268     0.07767918190556267
-0.014565137550578856     -0.0014033268784029843   0.07493352084202559
-0.014948782481615476     -0.0012385081014455479   0.07778626651869129
-0.014596430438699765     -0.0010210786940695557   0.07493825556962837
-0.014244078395784053     -8.036492866935633E-4    0.07237817094284198
-0.013891726352868344     -5.86219879317571E-4     0.07013199294038693
-0.01497741471771721      -8.217013351923563E-4    0.07766312092719457
-0.01461928280981472      -6.062572940353686E-4    0.0748877494851117
-0.01426115090191223      -3.908132528783807E-4    0.07236134111834897
-0.014994487223845382     -4.088653013771736E-4    0.07768076325209179
-0.014630575450956118     -1.954066264391905E-4    0.07492688120741609
-0.015                    0                        0.07780633402380913
-0.014630258742166995     1.884601630677415E-4     0.07492244765815714
-0.01426051748433399      3.7692032613548287E-4    0.07235291520339929
-0.013890776226500987     5.653804892032244E-4     0.07012057746299637
-0.014994487223845387     4.08865301377173E-4      0.07768221388646494
-0.014618966101025602     5.993108306639195E-4     0.07488321812952776
-0.014243444978205816     7.89756359950666E-4      0.07236958339695289
-0.01497741471771721      8.217013351923562E-4     0.07766268745388588
-0.014596113729910648     0.0010141322306981078    0.07493390446267353
-0.014948782481615477     0.0012385081014455496    0.07778787576236565
-0.01456429648749355      0.0013967410314754919    0.07492155871407281
-0.01417981049337162      0.0015549739615054335    0.07234972350486124
-0.013795324499249697     0.0017132068915353754    0.07011445342397378
-0.014909460097597084     0.001646085587342681     0.07768150884415706
-0.014519082021618999     0.0018055549963732083    0.0748809721314048
-0.014128703945640917     0.0019650244054037354    0.07236414163445315
-0.014858353549866376     0.002056136031240983     0.07766425753117051
-0.014462083392032142     0.0022168419192720957    0.07493089856612142
-0.01479546283842336      0.002468659433140455     0.07778808640025947
-0.014399008732209971     0.0025953057968678694    0.07492178566538055
-0.014002554625996581     0.002721952160595283     0.07234977120238581
-0.013606100519783192     0.0028485985243226967    0.07011316283644516
-0.014722496494647866     0.0028721911226220415    0.07768035887697047
-0.014320119031348885     0.002999329170997496     0.07488047707053115
-0.013917741568049903     0.00312646721937295      0.07236228278837895
-0.014637683436701188     0.003276706181399708     0.07766550250311537
-0.014229382616316618     0.0034043359144232035    0.07492981026440212
-0.014541023664583328     0.003682204609473456     0.0777880974748479
-0.014135433798996885     0.003776018853078286     0.07492295021981482
-0.01372984393341044      0.003869833096683115     0.07235171591648518
-0.013324254067823997     0.003963647340287944     0.07011439819645589
-0.014434843512484556     0.004078782683610551     0.07767917201884045
-0.014023383229194721     0.004172354786778217     0.07488099735890248
-0.013611922945904882     0.004265926889945882     0.07236235509692794
-0.014316922524978997     0.0044748764768733195    0.07766657961669074
-0.013899591823985773     0.004568206439603822     0.07492974616294437
-0.014187260702066655     0.004870485989261759     0.07778802883199082
-0.013775329380988615     0.004930578415476184     0.07492394219383217
-0.013363398059910577     0.004990670841690607     0.07235340937052998
-0.01295146673883254      0.005050763267905032     0.07011542061170796
-0.014048520626083813     0.005257379445367073     0.0776780550889569
-0.013630849817533805     0.005316514653627865     0.07488139822654469
-0.013213179008983795     0.0053756498618886565    0.07236220885684842
-0.013898301575157031     0.00564235846556512      0.0776676097057061
-0.013474891279135055     0.005700536455872283     0.07492956029178455
-0.013736603549286307     0.006025423049855906     0.07778797218885525
-0.013321181087687138     0.006051245088822012     0.0749248027889728
-0.01290575862608797      0.006077067127788116     0.07235484168728866
-0.013566172959935115     0.006399978151068078     0.07767698985074006
-0.01314521668487726      0.006424153136341402     0.07488167221680424
-0.012724260409819402     0.006448328121614725     0.07236181815539042
-0.013384674743666546     0.006771239144894686     0.07766860938848498
-0.012958184655150005     0.00679376707647523      0.07492919519122176
-0.013192108900480603     0.007139206031335732     0.07778782343863784
-0.012776196937206205     0.007130584413925899     0.07492664598480836
-0.012991084195422668     0.007498820035269786     0.0776758361076718
-0.012779547966152955     0.007853823931726737     0.07766947169460435
-0.012803610748689        -0.005417250516885551    0.07008383625436414
-0.013063450171400152     -0.005736803066581439    0.07234946538387814
-0.012650136216225159     -0.005767735633002858    0.07008719471891177
-0.013204845517393274     -0.004342748083153962    0.07007167599304039
-0.013491023872910995     -0.004639330271458943    0.07234104146284553
-0.013080965399273056     -0.004704756741961103    0.07007632737539034
-0.013515993573406365     -0.003238241897182246    0.07005781786568743
-0.013826458947483206     -0.0035099790558067437   0.0723309621773428
-0.013422359604459927     -0.0036094906607645333   0.07006270075727537
-0.013735107639788004     -0.0021109739994118895   0.07004400104364931
-0.014067646023093922     -0.0023562056663527565   0.07232079104702129
-0.013672367591070402     -0.002488983566505924    0.07004877743142299
-0.012698478800499752     -0.004778067555108754    0.0676695210567348
-0.01282235891861997      -0.004416058896301612    0.06761359593535135
-0.012946239036740186     -0.004054050237494472    0.06766110548178722
-0.01304661355883642      -0.003714489674559806    0.06765274322484782
-0.012764501482159348     -0.00344823992477279     0.06551495931003945
-0.013140247527782856     -0.0033432409109775177   0.06759652894522297
-0.012858135451105784     -0.003076991161190502    0.06551090899420345
-0.01323388149672929      -0.0029719921473952303   0.06764392449860808
-0.012664126960063115     -0.003787800487707456    0.06547464627134833
-0.013860433464747432     -9.684680636509992E-4    0.07003000034632674
-0.014212785507663143     -0.0011858974710269915   0.07231053632137852
-0.013829140576626518     -0.0013507162479844273   0.0700350167013139
-0.013891092935290106     1.8151369969629259E-4    0.07001792320478785
-0.01426083419312311      -6.946463371448875E-6    0.07230075367358368
-0.013891409644079224     -2.023530898106392E-4    0.07002203017998812
-0.013305981679513551     -0.0026250903742642056   0.06763567912594584
-0.0130023358166743       -0.002383187614928453    0.06549610699947986
-0.01269868995383505      -0.0021412848555927007   0.06374972082354403
-0.013368721728231153     -0.0022470808071701712   0.06757942943170142
-0.013065075865391901     -0.0020051780478344185   0.06549210895280001
-0.013431461776948754     -0.001869071240076137    0.06762711221728107
-0.012930235633890043     -0.0027300893880594776   0.06545560623951308
-0.013474501489681497     -0.0015169895668459528   0.06761718869999865
-0.013151155290857384     -0.00130101470137405     0.0654744185191278
-0.012827809092033272     -0.001085039835902147    0.06372686930159445
-0.013505794377802407     -0.0011347413825125246   0.06756064133903561
-0.013182448178978295     -9.187665170406217E-4    0.0654702508096763
-0.013537087265923318     -7.524931981790963E-4    0.0676083532145631
-0.012784769379300533     -0.0014371215091323318   0.06364523554817217
-0.013108115578124642     -0.0016530963746042343   0.06543521387008622
-0.01274172966656779      -0.001789203182362516    0.06365296447293392
-0.013827141741666795     0.001330598090757992     0.07000954628923892
-0.014211627735788719     0.0011723651607280499    0.07229427698834821
-0.01385895898408389      9.479892899806081E-4     0.07001163735629123
-0.01366917517960536      0.0024701346467269234    0.07000666366325596
-0.01406562928581875      0.002343488282999509     0.07229155130127601
-0.01373224983942753      0.0020916707691311493    0.07000703648546346
-0.013550791645945012     -3.97314709087412E-4     0.06759767116447284
-0.013209856939021679     -2.084095388572529E-4    0.06545124226194118
-0.012868922232098345     -1.9504368627093807E-5   0.06370254057982673
-0.013550474937155891     -1.3447919580480185E-5   0.06754177558849972
-0.013209540230232557     1.754572506496789E-4     0.06544773915457425
-0.013550158228366773     3.704188699264516E-4     0.06759027532439427
-0.012855217852076654     -3.7468285771877826E-4   0.06362109019071574
-0.013196152558999988     -5.635880279489373E-4    0.06541246609100922
-0.012841513472054963     -7.298613468104627E-4    0.06362947449051388
-0.013534881664105465     7.261540793163004E-4     0.06758312722525753
-0.013178987101709942     8.869276694293763E-4     0.06543509074424259
-0.012823092539314419     0.0010477012595424523    0.0636863560757705
-0.013503064421688367     0.001108762880093684     0.06752875632777389
-0.013147169859292845     0.00126953647020676      0.06543315063404229
-0.01347124717927127      0.0014913716808710677    0.06757905161734788
-0.01283836910357573      6.919660501526037E-4     0.06360191192152768
-0.013194263665971252     5.311924600395276E-4     0.06539291581968305
-0.012853645667837036     3.3623084076275496E-4    0.06360752040561653
-0.01341820288514373      0.003591964401632862     0.0700071079153739
-0.013823792750730172     0.0034981501580280327    0.07229164125789597
-0.01351215170246346      0.0032202814629777796    0.07000658322181155
-0.013075729181829695     0.00468839129203267      0.07000823046405881
-0.013487660502907731     0.0046282988658182455    0.07229258359728342
-0.013199991624826844     0.004326019316160307     0.07000782736502628
-0.01342725791063033      0.0018446084396710354    0.06757717707950528
-0.013059191322010959     0.0019760099878066953    0.06542958669300203
-0.01269112473339159      0.002107411535942355     0.06368156168840002
-0.01336418325080816      0.0022230723172668087    0.06752428634093731
-0.01299611666218879      0.0023544738654024686    0.06542905634792173
-0.013301108590985992     0.0026015361948625824    0.06757610426792328
-0.012735114002032534     0.0017541747771423876    0.0635932879672771
-0.013103180590651903     0.0016227732290067275    0.06538279179543305
-0.012779103270673477     0.00140093801834242      0.06359493695605342
-0.013228747347241155     0.002949479330536914     0.06757881169739893
-0.012851394174699115     0.0030503601367511306    0.0654334346601287
-0.013134798529921422     0.0033211622691919963    0.06752669009107821
-0.012757445357379382     0.003422043075406213     0.06543362087612484
-0.01304084971260169      0.0036928452078470787    0.06757929606019471
-0.012923755418443955     0.0027024170010767996    0.06538274452905156
-0.012644046355936717     0.005752180533804492     0.07000915368394867
-0.013059468817535884     0.005726358494838386     0.07229326688213371
-0.012797756547384628     0.005401471900854762     0.07000887161430737
-0.012940136737066552     0.004033102586496711     0.06758221495900449
-0.012815874294069397     0.004395474562369073     0.0675300698915046
-0.012691611851072246     0.004757846538241435     0.06758263158003361
-0.012656732381844242     0.003762300454055845     0.0653876416934433
-0.012496661683761318     -0.006118220749120166    0.07019515711628889
-0.012557500212671466     -0.00820421772070659     0.07778150956682932
-0.012355140605704178     -0.00784554141009403     0.07496066820016174
-0.01215278099873689      -0.007486865099481472    0.07242326742096637
-0.0119504213917696       -0.007128188788868914    0.07020074745534066
-0.012571932597079779     -0.007492842567375632    0.07491487475237629
-0.0123643172280066       -0.007131861203024522    0.07241801064922733
-0.011837108996469364     -0.009213188948768174    0.07778125324370318
-0.011665583442113294     -0.008838653188639956    0.07496159495638455
-0.012087057726530718     -0.008882715181471086    0.07766698989514144
-0.011910623009844322     -0.008505254433647814    0.07491643761222212
-0.011734188293157925     -0.008127793685824542    0.07242182474071801
-0.012327188131931417     -0.00854639143878389     0.07767056666506243
-0.012145844252914699     -0.008166005703265568    0.07495932867741832
-0.011579022000388125     -0.009535535015497117    0.07766952194377406
-0.012490336164488802     0.006102889166754221     0.07011624195278268
-0.012360284973931808     0.007121962796516066     0.07235809657899903
-0.011944373010657412     0.007113341179106233     0.07011962327728055
-0.012569916470042384     0.007487893364121403     0.07488292202894906
-0.012148748744662097     0.007476966692973018     0.07236326585808517
-0.012353124478666785     0.007840592206839803     0.07492976278371163
-0.012557500212671468     0.008204217720706588     0.07778747991200619
-0.012144129070342275     0.0081612530231513       0.07492957456375549
-0.011730757928013081     0.00811828832559601      0.07236345310407027
-0.01232718813193142      0.008546391438783886     0.077674575854853
-0.011908907827271904     0.008500501753533547     0.07488529542443205
-0.01208705772653072      0.008882715181471079     0.07767017884151542
-0.011663868259540877     0.008833900508525689     0.07493145768565151
-0.01183710899646937      0.00921318894876817      0.07778702253824525
-0.011579022000388128     0.009535535015497112     0.07767332512710876
-0.012314581586430746     -0.006454876762369749    0.07009218845797807
-0.012546397325337173     -0.006795205189774938    0.07235506754637169
-0.012132501489100172     -0.006791532775619332    0.07009420799447769
-0.012263321325455953     -0.005808994486316799    0.06768215028071042
-0.012029980967150586     -0.00549976822351343     0.06554823309047646
-0.011796640608845221     -0.0051905419607100635   0.06380369709007615
-0.012416795857919792     -0.005458509370199491    0.06762743542357365
-0.012183455499614426     -0.0051492831073961225   0.06554543976485391
-0.012570270390383631     -0.005108024254082183    0.0676760317631942
-0.011741125038980118     -0.00744865308204045     0.0700973819964959
-0.011943484645947406     -0.007807329392653007    0.07235866559835419
-0.011743826221450544     -0.006800522070182188    0.0676896578207638
-0.011925906318781116     -0.006463866056932604    0.06763622007063823
-0.011719311148462058     -0.006136199338245877    0.06555520237813671
-0.012107986416111688     -0.006127210043683021    0.06768595377185632
-0.011641305699500958     -0.005508757518076287    0.06371820069566095
-0.011874646057806321     -0.005817983780879654    0.06550409297428554
-0.012439872319846664     -0.004489369709449263    0.06553373079675799
-0.01218126583919358      -0.004200671863789774    0.06378846500536493
-0.012563752437966882     -0.004127361050642123    0.06552990154735133
-0.01205305742907746      -0.004530628562763204    0.06370491419156094
-0.012311663909730547     -0.004819326408422694    0.06549191029266108
-0.01192484901896134      -0.004860585261736633    0.06371000827422924
-0.012482389405482278     -0.0031819901749857746   0.06376905900656848
-0.012382014883386045     -0.003521550737920441    0.06368682072890035
-0.01228164036128981      -0.0038611113008551073   0.06369330109049857
-0.012626589771050793     -0.0024881866287237253   0.06366735966011314
-0.012554489588266535     -0.00283508840185475     0.0636737714891369
-0.011691138014890863     -0.004580114805917378    0.0619054927274944
-0.011819346425006982     -0.004250158106943948    0.061942027154545616
-0.012125617322540722     -0.003261083216239091    0.06192407486182833
-0.01202524280044449      -0.003600643779173757    0.06188869218018449
-0.011924868278348256     -0.003940204342108423    0.061934621006942
-0.011768845239599167     -0.003340176257492407    0.06053558468285547
-0.011668470717502932     -0.003679736820427073    0.0605394393136308
-0.012349517413244818     -0.002249379513936402    0.06190620442881882
-0.01227741723046056      -0.002596281287067426    0.06187077625093603
-0.0122053170476763       -0.0029431830601984506   0.06191667067373143
-0.012000344872654584     -0.0023574741722801025   0.06052034264231178
-0.011928244689870325     -0.002704375945411127    0.06052410322404033
-0.01165117233206435      -0.0024655688306238037   0.05960547386049591
-0.011848544964734746     -0.003022276101451767    0.06049304633789151
-0.012402838289734468     -0.001926903378879157    0.06190006815592108
-0.012106986625633887     -0.0017125219021656133   0.06051068247338122
-0.011811134961533305     -0.0014981404254520699   0.059595088433672706
-0.012445878002467207     -0.0015748217056489725   0.061852975061034314
-0.012150026338366628     -0.0013604402289354289   0.06050612318547184
-0.01248891771519995      -0.001222740032418788    0.06188767277341392
-0.011757814085043655     -0.0018206165605093145   0.059531246858986635
-0.012053665749144234     -0.002034998037222858    0.06047881627121761
-0.011704493208554002     -0.0021430926955665593   0.05953439575825775
-0.012513829850397291     -8.968544370688708E-4    0.06187256906852172
-0.012199850608761309     -7.086690382355943E-4    0.06048307525713929
-0.011885871367125328     -5.204836394023178E-4    0.05957220527218871
-0.012527534230418982     -5.416759479771864E-4    0.06182505311089025
-0.012213554988782998     -3.5349054914390985E-4   0.06047802381631076
-0.012541238610440672     -1.8649745888550182E-4   0.061859274968242034
-0.011836047096730647     -0.0011722548301021526   0.05951905764234271
-0.011860959231927986     -8.463692347522353E-4    0.059511013544763805
-0.012174938473563969     -0.0010345546335855118   0.06045780951296982
-0.012474041002157078     0.0031512409429653478    0.06368658335866344
-0.012546402245901915     0.0028032978072910168    0.06359527995584238
-0.012618763489646752     0.0024553546716166857    0.06359347973115134
-0.01212636072860121      0.0067765238416555625    0.07001171116010704
-0.012542272691875606     0.006785145459065395     0.07229474295107569
-0.012308348446545006     0.006439706504204891     0.07001056281453917
-0.012539595330515872     1.4282630586618687E-4    0.06184675378234599
-0.012210268428933396     3.0515698035946755E-4    0.06045885644717541
-0.01188094152735092      4.674876548527483E-4     0.05955293636474284
-0.012524318766254561     4.985615152560356E-4     0.061801361933036585
-0.012194991864672086     6.608921897493162E-4     0.060455490077648055
-0.012509042201993253     8.542967246458843E-4     0.061837851811908914
-0.011882584807275724     1.381638901010596E-4     0.05949178384200708
-0.012211911708858197     -2.4166784392221096E-5   0.0604312847710756
-0.011884228087200525     -1.9115987465062912E-4   0.05949854337657784
-0.01248132585748125      0.0011830298272884265    0.06183251712901214
-0.01213955917564808      0.0013183583950344005    0.06044717307064484
-0.011797792493814912     0.0014536869627803748    0.05954466312876024
-0.012437336588840307     0.001536266586088394     0.06179012790030383
-0.012095569907007137     0.001671595153834368     0.060446125029347805
-0.012393347320199363     0.0018895033448883616    0.06182972390424426
-0.011825508838326917     0.0011249538601378326    0.0594780232592976
-0.012167275520160083     9.896252923918586E-4     0.06041402065607747
-0.011853225182838918     7.962207574952905E-4     0.05948089473333196
-0.0115759599100351       -6.607184565531009E-4    0.05870744733548358
-0.011578910661548024     -3.600079178451472E-4    0.058682547525915334
-0.011577267381623221     -3.068415309345849E-5    0.05864933349609458
-0.011575624101698418     2.9863961165823026E-4    0.0586761004405256
-0.012556019406309103     0.004102557832705476     0.06543842304357972
-0.012171902075551655     0.004172013078914243     0.0636922075529355
-0.01243175696331195      0.004464929808577839     0.06543854880399405
-0.012272615051086797     0.003831755700264611     0.06360073575673011
-0.012373328026621937     0.0034914983216149794    0.0635987624921995
-0.012562804108481106     0.005088235844770597     0.06758235883474836
-0.01217414147812967      0.005125708421636162     0.0654379516862582
-0.011785478847778237     0.005163180998501727     0.06369139503585025
-0.012409093917033194     0.005438944477720327     0.06753022675150365
-0.012020431286681758     0.005476417054585892     0.06543802808550747
-0.012255383725585281     0.005789653110670056     0.06758272866088032
-0.011914286590369378     0.0048327916919725655    0.06360206882879516
-0.01230294922072081      0.004795319115107001     0.0653899019457736
-0.012043094332960516     0.004502402385443404     0.06360244580174129
-0.012339926037143173     0.0022142258769718105    0.06183187459580147
-0.011988727340894755     0.0023210402180012663    0.060449103083972354
-0.011637528644646337     0.0024278545590307216    0.059547253003627655
-0.012267564793398335     0.0025621690126461415    0.06179214841507772
-0.011916366097149918     0.002668983353675597     0.060449982050279974
-0.012195203549653496     0.002910112148320472     0.06183427771741576
-0.011690949927702528     0.0021031320269472727    0.059478924699872794
-0.012042148623950946     0.0019963176859178174    0.06041034765598949
-0.01174437121075872      0.0017784094948638239    0.05947793028279652
-0.01211654945054275      0.003228673795170465     0.06184332854785888
-0.011759057898928418     0.0033061066473755825    0.06046326764462365
-0.012015836475007608     0.003568931173820097     0.06180368199494633
-0.011658344923393276     0.0036463640260252137    0.06046423318207924
-0.011915123499472467     0.003909188552469728     0.061846063653103356
-0.011837711998039168     0.00298754500052559      0.06041958988289849
-0.012099751255069095     0.006108084482690394     0.06758197989894296
-0.011709166345649386     0.006113279798626567     0.06543666181269234
-0.011917763537125297     0.006444901820141064     0.06753062765285715
-0.011735775819181499     0.006781719157591734     0.06758393331847289
-0.011864798816165572     0.005794848426606229     0.06538894937358283
-0.01162984637726205      0.005481612370522065     0.06360137906472996
-0.01193975333633759      0.0077976275092845136    0.0722982305066933
-0.011735377602332904     0.007434001995417728     0.07001492825108435
-0.0118091309138523       0.00421944141118134      0.061847406859891596
-0.01168032317126116      0.004549830717710501     0.06180616632243937
-0.01149405788775722      -0.008464117428511737    0.07242532605378293
-0.011322532333401152     -0.008089581668383519    0.07020470699869985
-0.010617572946494937     -0.008995670554877612    0.07020786819015176
-0.011024084963153078     -0.009068176686174467    0.07242504672708287
-0.011430596979811221     -0.009140682817471319    0.07496111426608834
-0.010757001929509596     -0.009383521114031158    0.07242679282686765
-0.011168011964948862     -0.009459528064764139    0.07491768217341604
-0.010896430912524253     -0.009771371673184703    0.07496223312817014
-0.011311938966744643     -0.00985087944335381     0.07766774748243557
-0.011035859895538912     -0.01015922223233825     0.07778109515606664
-0.01063730838952405      -0.01005290273138777     0.07496215350459534
-0.010751701255680585     -0.010459488701280367    0.07766857597008926
-0.010459488701280367     -0.01075170125568059     0.07766857964201493
-0.01131738678568389      0.00807532362804072      0.07012586121907766
-0.011490627522612382     0.008454612068283204     0.0723668374297036
-0.011429201469764427     0.009136159620319158     0.07493259324247095
-0.011021293943059483     0.009059130291870148     0.07236906357729854
-0.010613386416354538     0.008982100963421136     0.07013233549650288
-0.011166616454902065     0.009455004867611978     0.07488781103082551
-0.010754210909415998     0.009374474719726841     0.07237068638714808
-0.011311938966744643     0.009850879443353805     0.07767084471953162
-0.010895035402477458     0.009766848476032548     0.07493333305970469
-0.011035859895538912     0.010159222232338252     0.07778663132519574
-0.010636191029061975     0.010048599493392282     0.07493473699593595
-0.010751701255680587     0.01045948870128037      0.0776721907847914
-0.010459488701280363     0.010751701255680587     0.07767159373529312
-0.011531828686190635     -0.007769117375211984    0.07009882419188276
-0.01108754587109908      -0.008391611297214883    0.07010119663109174
-0.011259071425455151     -0.008766147057343101    0.07236137353250617
-0.010852559408797008     -0.008693640926046247    0.07010233707052133
-0.011537231051131486     -0.006472855351495461    0.06555693302560045
-0.011330635880812429     -0.006145188632808733    0.06381274718418813
-0.011485970790156692     -0.00582697307544251     0.06372125578138109
-0.011144061157335046     -0.0077458119951018195   0.06769525001814869
-0.01096558998126894      -0.007402042321820119    0.06556359589626384
-0.010787118805202835     -0.007058272648538419    0.06381975886632867
-0.011353357510124529     -0.007425347701930284    0.06764240488471561
-0.011174886334058422     -0.007081578028648584    0.06556233970991461
-0.01156265386291401      -0.007104883408758749    0.06769262241337505
-0.011149463522275898     -0.006449549971385296    0.06372659498835312
-0.011356058692594954     -0.006777216690072022    0.06551203480129059
-0.010968291163739367     -0.006753911309961858    0.06372899468991841
-0.011562929604774744     -0.004910071504890808    0.061950337101187754
-0.011329218600704266     -0.004629601049071553    0.06055396423172089
-0.01109550759663379      -0.004349130593252297    0.059628805808079555
-0.011457427010820385     -0.004299644350098122    0.06055091292074559
-0.011121129795681736     -0.005846334760011414    0.061959583812297186
-0.010911623710551044     -0.005547480887214094    0.060562602675885216
-0.010702117625420351     -0.005248627014416775    0.05963582780164554
-0.011276464705026        -0.00552811920264519     0.061916519996392194
-0.011066958619895307     -0.005229265329847871    0.06056078089365837
-0.011431799614370262     -0.005209903645278967    0.061954672085631005
-0.01096437760622931      -0.004648962733640456    0.05956314281383138