% Model:              core_cross_section_solved.mph
% Version:            COMSOL 6.4.0.343
% Date:               Jul 7 2026, 11:03
% Dimension:          2
% Nodes:              8485
% Expressions:        1
% Description:        Surface
% x                       y                        Magnetic flux density norm
-0.01053215026588333      -0.0057509834617092866   1.688459648137986E-5
-0.010915585576976099     -0.004984976580858861    1.688459646597817E-5
-0.010794344506930318     -0.005242369246587693    1.68845965217523E-5
-0.010666532736566061     -0.005497704873537834    1.6884596609670937E-5
-0.010662060983643553     -0.0049732981915760555   1.6884608879643214E-5
-0.010537534563438533     -0.005229662337915542    1.6884608869124027E-5
-0.010584704472216443     -0.004376193104545901    1.6884625531259796E-5
-0.01080426975548948      -0.004315315551069131    1.6884615821851104E-5
-0.011023835038762511     -0.004254437997592362    1.6884606096785834E-5
-0.011243400322035546     -0.004193560444115593    1.6884596478205718E-5
-0.010694998173802997     -0.0045791209299835545   1.68846157887657E-5
-0.010917961814915177     -0.004518919124803349    1.6884606094125683E-5
-0.011140925456027356     -0.0044587173196231405   1.6884596590447094E-5
-0.010805291875389547     -0.004782048755421208    1.688460607999188E-5
-0.011031653874340876     -0.004722522698537564    1.6884596620475686E-5
-0.011059121535033559     -0.004012386206347869    1.688460887167014E-5
-0.010874842748031566     -0.003831211968580145    1.6884621411059582E-5
-0.010690563961029577     -0.0036500377308124215   1.688463410262823E-5
-0.011340528475704959     -0.003923257455760514    1.6884596562538236E-5
-0.011152771749692236     -0.00374177225326765     1.6884608878293538E-5
-0.010965015023679511     -0.003560287050774784    1.688462148764076E-5
-0.0114307007513529       -0.003652332537955153    1.688459656532508E-5
-0.011239466086329447     -0.0034705363707371486   1.6884608912199345E-5
-0.011513917148979378     -0.003380785690699511    1.6884596470907784E-5
-0.010927782626081746     -0.0028459309504767914   1.6884634344044787E-5
-0.011193785579259666     -0.0027475038763780167   1.6884621646158896E-5
-0.011459788532437584     -0.0026490768022792406   1.68846089876184E-5
-0.011725791485615502     -0.002550649728180466    1.688459647756448E-5
-0.011123160800380956     -0.0030242158638843645   1.6884621577435386E-5
-0.01139268809309236      -0.0029257255341614266   1.6884608951256065E-5
-0.011662215385803759     -0.0028272352044384887   1.6884596551085412E-5
-0.011318538974680166     -0.0032025007772919375   1.6884608941376235E-5
-0.011591590606925054     -0.0031039471919448378   1.6884596571400935E-5
-0.011114674346946183     -0.0019909633010692773   1.6884634383075865E-5
-0.011369079000032674     -0.0018964963375023031   1.688462167053841E-5
-0.011623483653119165     -0.0018020293739353284   1.688460899365603E-5
-0.011877888306205656     -0.001707562410368354    1.6884596476430178E-5
-0.011318380059835955     -0.002177525443439674    1.6884621607541986E-5
-0.011576318531485632     -0.0020826141800830067   1.6884608962633425E-5
-0.011834257003135304     -0.0019877029167263385   1.688459652980268E-5
-0.011522085772725729     -0.0023640875858100697   1.68846089611125E-5
-0.011783558062938588     -0.0022687320226637098   1.6884596591213598E-5
-0.011969434052986411     -8.559488601600819E-4    1.688459647152921E-5
-0.01194593090932963      -0.001138162050146479    1.6884596508753375E-5
-0.01191541566040271      -0.0014220332335492362   1.6884596611916798E-5
-0.011722916611887846     -9.453729742392853E-4    1.6884609088929527E-5
-0.011695907415595997     -0.0012284151609338629   1.6884609064369183E-5
-0.011661886114034008     -0.0015131153410448      1.6884609067491062E-5
-0.01147639917078928      -0.0010347970883184889   1.6884621871261944E-5
-0.011445883921862365     -0.0013186682717212463   1.6884621809811557E-5
-0.011229881729690715     -0.0011242212023976925   1.6884634687209696E-5
-0.012                    0                        1.6884596407159776E-5
-0.011996696720257804     -2.8288623730986614E-4   1.6884596496446854E-5
-0.011986508071253274     -5.682025240298933E-4    1.6884596630103486E-5
-0.011761337440727864     -9.115876109679721E-5    1.688460907019413E-5
-0.011754591476354503     -3.7526002311174395E-4   1.6884609045357034E-5
-0.011740960142718804     -6.617913345368518E-4    1.6884609048692616E-5
-0.011522674881455724     -1.823175221935944E-4    1.6884621806075745E-5
-0.0115124862324512       -4.676338089136218E-4    1.6884621761689616E-5
-0.011284012322183588     -2.734762832903916E-4    1.688463460798516E-5
-0.011455345999940542     4.257447808088561E-4     1.6884625015612575E-5
-0.011626708684289163     5.691461405925981E-4     1.6884615435193604E-5
-0.011798071368637785     7.125475003763401E-4     1.68846059061131E-5
-0.011969434052986408     8.559488601600822E-4     1.688459647572076E-5
-0.011636897333293693     2.838298538725707E-4     1.688461549449897E-5
-0.011811702702273486     4.2601618895123225E-4    1.6884605925842967E-5
-0.011986508071253276     5.682025240298936E-4     1.6884596629296508E-5
-0.011818448666646846     1.4191492693628533E-4    1.688460593790777E-5
-0.01199669672025781      2.828862373098663E-4     1.6884596586731283E-5
-0.010536349841553645     -0.0014200670611675143   1.6884671792090946E-5
-0.01128257406137833      0.001121457306408395     1.688463183064999E-5
-0.011481012142987438     0.0013168256743950496    1.6884619938052292E-5
-0.011679450224596545     0.0015121940423817042    1.688460814661718E-5
-0.011877888306205654     0.0017075624103683586    1.688459649266837E-5
-0.011511527391914356     0.0010329544909922907    1.6884619972258382E-5
-0.011713471526158533     0.0012274938622707653    1.688460813964587E-5
-0.011915415660402709     0.0014220332335492395    1.6884596628042828E-5
-0.011740480722450382     9.444516755761864E-4     1.688460816384414E-5
-0.01194593090932963      0.001138162050146481     1.688459652518793E-5
-0.01114663940759357      0.0019725496248864023    1.6884632844644286E-5
-0.011339690100267547     0.0021652496593177585    1.688462059835465E-5
-0.011532740792941521     0.002357949693749115     1.688460846802533E-5
-0.011725791485615498     0.002550649728180471     1.6884596494993495E-5
-0.011390389040464265     0.001884220553380388     1.6884620652160406E-5
-0.011586973551701425     0.002076476288022052     1.6884608461944305E-5
-0.011783558062938583     0.0022687320226637154    1.6884596605215703E-5
-0.011634138673334958     0.0017958914818743728    1.6884608494549066E-5
-0.011834257003135304     0.0019877029167263446    1.688459653389833E-5
-0.010596928728745127     -4.973082228599187E-4    1.6884673145427714E-5
-0.010493806375436263     2.831960138441297E-4     1.6884679580711396E-5
-0.010481125800250691     5.736721245947139E-4     1.68846797179817E-5
-0.010740709563154396     4.247940207661946E-4     1.6884664962329963E-5
-0.010957733573456878     0.0028399293254543975    1.6884632846555202E-5
-0.011143128098631043     0.0030202147805361043    1.688462059448484E-5
-0.011328522623805208     0.003200500235617811     1.688460845910588E-5
-0.011513917148979376     0.003380785690699517     1.688459648658441E-5
-0.011213752877509751     0.0027435027930297552    1.6884620659144643E-5
-0.011402671742217402     0.0029237249924873       1.688460846329834E-5
-0.011591590606925052     0.003103947191944844     1.688459658195925E-5
-0.011469772181562622     0.0026470762606051134    1.6884608501941475E-5
-0.01166221538580376      0.002827235204438496     1.688459655696121E-5
-0.01070782552077049      0.00365742682240166      1.688463307872545E-5
-0.010886350454525509     0.003836138029639641     1.6884620737271215E-5
-0.011064875388280526     0.004014849236877621     1.6884608537995236E-5
-0.011243400322035545     0.004193560444115602     1.688459647887388E-5
-0.010976522730173452     0.0035652131118342795    1.6884620817720626E-5
-0.011158525602939206     0.003744235283797401     1.688460854618513E-5
-0.011340528475704955     0.003923257455760521     1.6884596567177825E-5
-0.011245219939576414     0.0034729994012668982    1.688460858471269E-5
-0.011430700751352902     0.0036523325379551608    1.6884596571821877E-5
-0.010591387334188806     0.004364512153381307     1.6884625435734225E-5
-0.010699453415117905     0.004571333629207159     1.688461572595766E-5
-0.010807519496047002     0.004778155105033012     1.6884606051352274E-5
-0.0109155855769761       0.004984976580858866     1.6884596464530446E-5
-0.010808724996804386     0.004307528250292739     1.6884615758812923E-5
-0.01092018943557263      0.004515025474415155     1.6884606063979577E-5
-0.011031653874340871     0.004722522698537571     1.6884596624266304E-5
-0.011026062659419964     0.00425054434720417      1.688460606629118E-5
-0.011140925456027354     0.004458717319623151     1.6884596587583876E-5
-0.010577286596349687     0.0013821541867823496    1.6884669720719755E-5
-0.01041764327539851      0.002286241803035609     1.6884669815913478E-5
-0.01066934681737551      0.004964409443979549     1.6884608735113846E-5
-0.010423108057774922     0.004943842307100231     1.6884621138316996E-5
-0.010794344506930315     0.005242369246587696     1.688459651780461E-5
-0.01054482039717049      0.005220773590319036     1.6884608730612886E-5
-0.010666532736566058     0.005497704873537837     1.6884596622051937E-5
-0.010413723276646997     0.005475080697879836     1.6884608755481187E-5
-0.010532150265883326     0.005750983461709293     1.6884596491309294E-5
-0.01044147358047045      -0.004567442540700749    1.688462838638162E-5
-0.010551767282057        -0.004770370366138402    1.688461864904948E-5
-0.010619990968487487     -0.004134141313301408    1.6884628407035422E-5
-0.010655277464758531     -0.0038920895220569147   1.6884631300625955E-5
-0.010839556251760522     -0.004073263759824639    1.6884618667196465E-5
-0.010848709737731024     -0.0031139665439220013   1.6884634362945873E-5
-0.011044087912030234     -0.0032922514573295743   1.688462162556714E-5
-0.0107696368493803       -0.003382002137367211    1.6884634274099425E-5
-0.01125608281954781      -0.002462514659908845    1.6884621731110395E-5
-0.010990079866369892     -0.00256094173400762     1.688463447357084E-5
-0.011052377106658037     -0.0022759525175384487   1.688463448591841E-5
-0.010433362875373895     -0.0038008416051856747   1.6884644650907067E-5
-0.010502939846130996     -0.003501480885855601    1.6884646683109904E-5
-0.010582012734481719     -0.003233445292410391    1.6884646842930848E-5
-0.01066108562283244      -0.002965409698965181    1.6884646887747385E-5
-0.010748639114897776     -0.002663070118259477    1.688464649749408E-5
-0.01048194211164847      -0.0027825488667478663   1.6884659269864872E-5
-0.010569495603713803     -0.002480209286042162    1.688465878155009E-5
-0.01063179284400195      -0.002195220069572991    1.6884658790166634E-5
-0.010873233595474065     -0.002093091685321134    1.6884646523321333E-5
-0.01081093635518592      -0.0023780809017903055   1.6884646589031286E-5
-0.011407481460947519     -0.0016075823046117746   1.6884621844608344E-5
-0.011153076807861026     -0.001702049268178749    1.6884634599450716E-5
-0.01119147926877587      -0.0014131352352882206   1.6884634701421052E-5
-0.010767527137599335     -0.001321451774910907    1.688465925872381E-5
-0.010998704433645024     -0.0012228364886543      1.6884646903587233E-5
-0.010729124676684493     -0.0016103658078014354   1.6884659169342414E-5
-0.01096030197273018      -0.001511750521544828    1.688464688880274E-5
-0.010921899511815337     -0.0018006645544353563   1.6884646715380917E-5
-0.01068045876034322      -0.001902792938687213    1.6884659072599464E-5
-0.010439018008871103     -0.0020049213229390694   1.688467151751023E-5
-0.010487683925212373     -0.0017124941920532918   1.6884671706424243E-5
-0.011247925260521673     -8.406395626952589E-4    1.6884634767638334E-5
-0.01126596879135263      -5.570579229928253E-4    1.688463473584587E-5
-0.011494442701620238     -7.512154486160553E-4    1.688462191400226E-5
-0.011398234774021559     1.9267109277577358E-4    1.6884628221797323E-5
-0.01157978610737471      5.075616583948819E-5     1.688461865531967E-5
-0.011341123548102574     -4.0402595257309004E-5   1.6884631452804768E-5
-0.011018897396042185     -9.152502092184346E-4    1.688464738892503E-5
-0.010787720099996494     -0.0010138654954750417   1.688465983068187E-5
-0.010556542803950804     -0.001112480781731649    1.688467237011849E-5
-0.010807913062393655     -7.062792160391767E-4    1.6884660194278026E-5
-0.010576735766347965     -8.048945022957839E-4    1.6884672830245708E-5
-0.0110549844577041       -3.4808692981356734E-4   1.6884647294699824E-5
-0.011036940926873143     -6.316685695160009E-4    1.6884647401886386E-5
-0.010825956593224613     -4.22697576336743E-4     1.6884660101270695E-5
-0.011397755353753139     6.576489560087024E-4     1.6884627299167515E-5
-0.011340164707565733     8.895531312085487E-4     1.688462960036452E-5
-0.011569118038101761     8.010503157924444E-4     1.6884617743556015E-5
-0.011217133854345161     4.2542786079463564E-4    1.6884638135350567E-5
-0.010978921708749778     4.251109407804151E-4     1.688465138014971E-5
-0.011159543208157756     6.573320359944819E-4     1.6884640501787946E-5
-0.010921331062562373     6.570151159802614E-4     1.6884653871319367E-5
-0.01110195256197035      8.892362111943281E-4     1.6884642811465044E-5
-0.011160022628426176     1.9235417276155305E-4    1.6884641450159224E-5
-0.01110291140250719      -4.071951527152953E-5    1.6884644703189373E-5
-0.010921810482830793     1.9203725274733252E-4    1.6884654833055527E-5
-0.010873883538027703     -1.1533016179470526E-4   1.6884657575537668E-5
-0.010644855673548215     -1.8994080831788093E-4   1.6884670528466474E-5
-0.010692782618351306     1.1742660622415682E-4    1.688466783574755E-5
-0.01143570059172585      0.0016005231138877187    1.6884620390227095E-5
-0.011237262510116742     0.001405154745901064     1.688463227380097E-5
-0.011191950958855156     0.0016888521853937332    1.6884632610308636E-5
-0.010445879430633173     -2.4171400697908037E-5   1.6884682529986484E-5
-0.011047478239702115     0.0012083562665330466    1.688464431186401E-5
-0.010866856740294136     9.761351713189797E-4     1.6884655517061476E-5
-0.010686235240886159     7.439140761049129E-4     1.6884666731441662E-5
-0.010812382418025901     0.001295255226657698     1.688465692211059E-5
-0.010631760918617922     0.0010630341314436312    1.688466828240972E-5
-0.010767070866764315     0.0015789526661503673    1.6884657284128952E-5
-0.010956855137178943     0.0017757511455183848    1.6884645002086026E-5
-0.011002166688440528     0.0014920537060257157    1.688464472068439E-5
-0.010426651477982454     8.927921799334322E-4     1.6884681405666473E-5
-0.011276721488888648     0.002454376226173757     1.6884620733185667E-5
-0.011083670796214673     0.0022616761917424004    1.6884632964412535E-5
-0.011020702184835775     0.002550802758598399     1.6884632963344684E-5
-0.0105976733747513       0.0024708043105085386    1.6884657338166683E-5
-0.010777703474104089     0.002655366817981468     1.6884645022133056E-5
-0.010660641986130197     0.0021816777436525405    1.6884657339739894E-5
-0.010840672085482986     0.0023662402511254697    1.6884645104343838E-5
-0.010903640696861883     0.002077113684269471     1.68846450271791E-5
-0.010713856426447255     0.0018803152049014537    1.6884657412798027E-5
-0.010524072156032627     0.001683516725533436     1.688466987545935E-5
-0.010470857715715568     0.0019848792642845224    1.6884669900290157E-5
-0.011059825414402247     0.0032927139461851915    1.6884620800826425E-5
-0.010874430889228081     0.0031124284911034847    1.688463302807001E-5
-0.010791128204999285     0.003384927656752572     1.688463310035149E-5
-0.010630200063049367     0.004128817043054758     1.688462799717973E-5
-0.010847537725664947     0.00407183313996619      1.688461829415037E-5
-0.010669012791909929     0.0038931219327282087    1.688463057797985E-5
-0.010687525874059928     0.0029568687397857115    1.6884645596571397E-5
-0.010507495774707137     0.0027723062323127823    1.688465801058872E-5
-0.010417318174662977     0.0030738081541170255    1.688465846791789E-5
-0.010520920505602336     0.0035018670710838867    1.6884645718521807E-5
-0.010604223189831131     0.0032293679054347987    1.6884645719575872E-5
-0.01045073516210941      0.0038008978354501714    1.688464374488507E-5
-0.010453214655517316     0.004550766492327843     1.6884628170380346E-5
-0.010561280736446414     0.004757587968153696     1.6884618467486405E-5
-0.009750352523447818     -0.005714125760988836    1.6884633849807354E-5
-0.010010951770926323     -0.0057264116612289855   1.6884621297512925E-5
-0.010271551018404825     -0.005738697561469135    1.6884608806289486E-5
-0.009865250139572563     -0.005971978899273589    1.688462128197685E-5
-0.010128989795080472     -0.005985631617275992    1.688460879070753E-5
-0.010392729450588379     -0.005999284335278395    1.6884596538390902E-5
-0.009980147755697305     -0.006229832037558343    1.688460880656104E-5
-0.01024702781923462      -0.006244851573322999    1.688459659063107E-5
-0.010095045371822048     -0.006487685175843097    1.6884596485352742E-5
-0.009267914811859382     -0.006459546874043005    1.6884634094179974E-5
-0.009543624998513604     -0.006468926307976369    1.6884621460809283E-5
-0.009819335185167824     -0.0064783057419097335   1.688460889316211E-5
-0.00938077497957064      -0.006703475059985642    1.6884621433199993E-5
-0.009659450088584915     -0.006714542737730297    1.6884608868331966E-5
-0.009938125197599188     -0.006725610415474951    1.6884596559442687E-5
-0.009493635147281897     -0.006947403245928279    1.688460887524505E-5
-0.009775275178656227     -0.006960159167484227    1.6884596564976356E-5
-0.009606495314993154     -0.007191331431870917    1.6884596477095715E-5
-0.009327319988691745     -0.0071759089844771      1.6884608634711074E-5
-0.009432849784908617     -0.007417644046422376    1.6884596578323725E-5
-0.00925368356602807      -0.0076399758255168825   1.688459655657582E-5
-0.010406437442915039     -0.00548396944547634     1.6884608887860226E-5
-0.010408536390311005     -0.00496161980229325     1.688462142675404E-5
-0.010280724619946752     -0.005216955429243393    1.6884621432172685E-5
-0.010155011796978457     -0.004949941413010444    1.688463406713999E-5
-0.00941086550449505      -0.004903146995642073    1.6884672972066657E-5
-0.00929493656067424      -0.004677491629122556    1.6884685049623314E-5
-0.009918960704062531     -0.004102449353932182    1.6884665841208165E-5
-0.009633666693719225     -0.0041436932013159625   1.6884680277930615E-5
-0.009348372683375919     -0.004184937048699743    1.6884694801632216E-5
-0.009744950067929267     -0.003875031010393526    1.688468021005342E-5
-0.009463886319267822     -0.0039171158895435895   1.6884694737060442E-5
-0.009570939431796        -0.0036476126668548705   1.6884694757437412E-5
-0.009294105944816416     -0.0036905385777712147   1.688470964125778E-5
-0.009396928795662736     -0.003420194323316215    1.6884709508091042E-5
-0.01012769161633383      -0.0032043671959419598   1.6884672330444437E-5
-0.009884104009443466     -0.003276309571733378    1.6884684660983818E-5
-0.009640516402553102     -0.0033482519475247965   1.6884696999776146E-5
-0.009971549844375236     -0.002998964948704344    1.6884684609518323E-5
-0.009732308111694898     -0.003071191646982452    1.688469696367374E-5
-0.009493066379014557     -0.003143418345260559    1.6884709631435207E-5
-0.009815408072416642     -0.0027935627014667288   1.68846969842136E-5
-0.009580512213946332     -0.0028660737222315257   1.688470969349775E-5
-0.00965926630045805      -0.002588160454229113    1.688470954698399E-5
-0.010390352092529831     -0.0022973484538248473   1.688467123010271E-5
-0.010146656828505905     -0.002394285787292936    1.6884683939082414E-5
-0.009902961564481979     -0.0024912231207610243   1.6884696654047197E-5
-0.010209603645686242     -0.002110337650221494    1.6884683846108185E-5
-0.009970306445209035     -0.0022069860401628732   1.6884696587568124E-5
-0.009731009244731827     -0.0023036344301042514   1.688470962428626E-5
-0.01002885519884265      -0.0019233268466181397   1.68846965947859E-5
-0.009793956061912164     -0.0020196862930328095   1.688470968655503E-5
-0.009848106751999059     -0.0017363160430147863   1.688470952359997E-5
-0.010306935478368782     -0.0015254833884499382   1.6884684312672984E-5
-0.01007752111518392      -0.0016308997157323622   1.688469683485517E-5
-0.01034488598585019      -0.0012371874848622606   1.6884684234827546E-5
-0.010119852448794502     -0.0013417315738800317   1.6884696782208818E-5
-0.00989481891173881      -0.001446275662897802    1.6884709609991884E-5
-0.010153422130146732     -0.0010543079085570065   1.688469679978484E-5
-0.00993276941922022      -0.0011579797593101247   1.6884709709228414E-5
-0.009961958274443279     -8.71428332251753E-4     1.688470955027088E-5
-0.010385271910644511     -6.220149259905302E-4    1.6884685238077343E-5
-0.010173615092543893     -7.467216291211416E-4    1.6884697305668058E-5
-0.010397952485830085     -3.315388152399458E-4    1.6884685134316247E-5
-0.010190591967026649     -4.547861877760289E-4    1.6884697243816214E-5
-0.009983231448223207     -5.78033560312112E-4     1.6884709613382564E-5
-0.01019897624291504      -1.657694076199729E-4    1.688469723422957E-5
-0.009995912023408784     -2.875574495615277E-4    1.688470972243832E-5
-0.01                     0                        1.688470960608915E-5
-0.009995912023408783     2.875574495615274E-4     1.68847096472898E-5
-0.009983231448223207     5.780335603121114E-4     1.6884709576298404E-5
-0.009961958274443279     8.714283322517523E-4     1.6884709500433407E-5
-0.010246903187718133     1.4159800692206486E-4    1.6884694433996197E-5
-0.010238518911829735     4.306147870781207E-4     1.6884694434002106E-5
-0.010221542037346983     7.225502284232331E-4     1.6884694518711872E-5
-0.010372177155714217     0.0012119122352721506    1.68846828273811E-5
-0.010167067715078748     0.0010416702837619514    1.6884696063855883E-5
-0.01033422664823281      0.0015002081388598286    1.6884682915830002E-5
-0.010133498033726516     0.0013290939490849761    1.688469606860361E-5
-0.009932769419220215     0.0011579797593101234    1.688470968133024E-5
-0.010091166700115933     0.0016182620909373072    1.68846961309406E-5
-0.009894818911738813     0.0014462756628978017    1.6884709608696754E-5
-0.009848106751999059     0.0017363160430147863    1.6884709514171258E-5
-0.010227797767598693     0.0021029332163620016    1.688468289045093E-5
-0.010037952259798876     0.0019196246296883939    1.6884696105319237E-5
-0.010164850950418356     0.002386881353433444     1.6884682981718798E-5
-0.009979403506165262     0.002203283823233127     1.6884696101854625E-5
-0.009793956061912162     0.0020196862930328087    1.688470967233473E-5
-0.009912058625438199     0.002487520903831279     1.6884696170025574E-5
-0.009731009244731827     0.0023036344301042523    1.6884709620037535E-5
-0.009659266300458047     0.002588160454229114     1.688470953347354E-5
-0.010176869298174334     0.004923275170220915     1.6884633633717387E-5
-0.010295296287410665     0.0051991779340503745    1.6884621153758064E-5
-0.010147110475266025     0.0031907475684483395    1.6884671482632897E-5
-0.009984495750330034     0.002989885197041931     1.6884684036001693E-5
-0.009821881025394039     0.002789022825635522     1.6884696688406668E-5
-0.009897049915398262     0.003267229820070964     1.688468409148672E-5
-0.009738781064672295     0.003066651771151244     1.6884696674481874E-5
-0.009580512213946327     0.002866073722231524     1.6884709681590332E-5
-0.009646989355530499     0.0033437120716935877    1.6884696712084807E-5
-0.009493066379014559     0.0031434183452605574    1.6884709632287953E-5
-0.009396928795662736     0.003420194323316212     1.6884709499271766E-5
-0.009294105944816416     0.0036905385777712125    1.6884709630045365E-5
-0.009576804012037577     0.0036427428360598733    1.688469453959552E-5
-0.009469750899509397     0.003912246058748592     1.688469452420932E-5
-0.009354237263617494     0.004180067217904747     1.6884694583743863E-5
-0.009756679228412415     0.0038652913488035345    1.6884679788214234E-5
-0.009645395854202375     0.004133953539725972     1.6884679853920315E-5
-0.009936554444787252     0.004087839861547196     1.6884665213334455E-5
-0.009762729004012257     0.005701564159877621     1.6884633626040348E-5
-0.00987350112661552      0.005963604498532781     1.688462112903177E-5
-0.009984273249218783     0.00622564483718794      1.688460873315438E-5
-0.010095045371822046     0.006487685175843101     1.6884596488447217E-5
-0.010019202757969279     0.005718037260488179     1.6884621145206233E-5
-0.01013311528860195      0.005981444416905591     1.6884608714669754E-5
-0.010247027819234615     0.006244851573323002     1.688459659651196E-5
-0.010275676511926301     0.005734510361098736     1.6884608731915047E-5
-0.010392729450588375     0.005999284335278399     1.6884596536068175E-5
-0.009461174560585482     0.004880463120116119     1.688467097733709E-5
-0.009328475931401193     0.004662369045438587     1.6884683687567087E-5
-0.009277154838788675     0.006450394433091133     1.688463397334423E-5
-0.0093869349975235       0.0066973734326843965    1.688462135412547E-5
-0.009496715156258323     0.006944352432277658     1.688460883531289E-5
-0.009606495314993151     0.007191331431870921     1.6884596480246637E-5
-0.009549785016466467     0.006462824680675123     1.6884621376297597E-5
-0.009662530097561343     0.006711491924079676     1.6884608826424124E-5
-0.00977527517865622      0.0069601591674842275    1.6884596568690697E-5
-0.009822415194144255     0.006475254928259112     1.68846088511378E-5
-0.009938125197599188     0.006725610415474956     1.6884596557159086E-5
-0.009253683566028067     0.007639975825516887     1.6884596545513904E-5
-0.009432849784908616     0.00741764404642238      1.688459657623873E-5
-0.009317488466538407     0.007176130552412846     1.688460904016892E-5
-0.009704437569043083     -0.0062204526036249794   1.6884621478391305E-5
-0.00942872738238886      -0.006211073169691615    1.6884634134179015E-5
-0.009589539952918339     -0.005962599465340225    1.6884634053732657E-5
-0.009885238947958033     -0.005459397644996039    1.6884634031560574E-5
-0.010020125372468245     -0.005204669529003241    1.6884634103303522E-5
-0.010145838195436536     -0.005471683545236189    1.688462146459542E-5
-0.010298242688724452     -0.004758691976855596    1.6884631262889126E-5
-0.009906963032817323     -0.004934343273887654    1.688464687674904E-5
-0.009772076608307109     -0.005189071389880451    1.6884646878875437E-5
-0.009637190183796895     -0.005443799505873248    1.6884646754064817E-5
-0.009658914268656187     -0.004918745134764863    1.6884659808409707E-5
-0.009524027844145973     -0.005173473250757661    1.6884659780826733E-5
-0.00948973830651801      -0.005717850366235572    1.688464618180115E-5
-0.009328925735988532     -0.005966324070586962    1.6884646349939983E-5
-0.009376575966867088     -0.005447524111119984    1.688465932280444E-5
-0.009263413627216166     -0.005177197856004397    1.6884672550722697E-5
-0.010076328099339817     -0.0046674440599843575   1.688464461481702E-5
-0.00982827933517868      -0.004651845920861566    1.688465762872503E-5
-0.009580230571017544     -0.004636247781738776    1.688467072013024E-5
-0.009997644401701174     -0.0043849467069582695   1.6884655218779592E-5
-0.009749595637540038     -0.004369348567835479    1.6884668381422057E-5
-0.010362789882831807     -0.0042849451876746615   1.6884638771562242E-5
-0.01014087529344717      -0.004193697270803422    1.6884652137385322E-5
-0.01039807637910285      -0.004042893396430168    1.6884641745275223E-5
-0.010176161789718214     -0.003951645479558928    1.6884655237380145E-5
-0.01021955899108581      -0.004476194623829508    1.688464172197584E-5
-0.010315315731232413     -0.00335292404089878     1.688465939041677E-5
-0.010394388619583136     -0.0030848884474535703   1.688465953917904E-5
-0.010245738760475314     -0.0036522847602288547   1.6884657422056284E-5
-0.009988537674819631     -0.003803088634602108    1.6884668150621794E-5
-0.010058114645576731     -0.003503727915272034    1.6884670271673308E-5
-0.009464301627196733     -0.004410592415219259    1.6884682782797023E-5
-0.010215245108399164     -0.0029020276152362558   1.6884672115215886E-5
-0.010302798600464498     -0.0025996880345305513   1.6884671736651142E-5
-0.009814527038686367     -0.0035756702910634524   1.688468255020929E-5
-0.010059103336440571     -0.00269662536799864     1.6884684393730107E-5
-0.010258269562027512     -0.001817910519335716    1.688468417905246E-5
-0.01036507894824735      -9.296012054263952E-4    1.6884684848342556E-5
-0.010281012207915753     0.001801570677610915     1.6884683016258307E-5
-0.010327465675354348     0.002587743724839852     1.688467051004886E-5
-0.010237288075310186     0.002889245646644096     1.688467107508018E-5
-0.01033401549043418      0.0033463073197661126    1.688465848674367E-5
-0.010074673350374194     0.0026883832752376876    1.6884683629716526E-5
-0.01037310970438829      0.00427228805610327      1.68846385036546E-5
-0.010411922433248849     0.004036592945776721     1.688464115765286E-5
-0.01015483207458777      0.004180063958825232     1.6884651693567596E-5
-0.01019364480344833      0.003944368848498683     1.688465446963112E-5
-0.010263830146941256     0.0036453380841323982    1.6884656586175088E-5
-0.0100769251317731       0.0034897783328146246    1.688466950316857E-5
-0.010006739788280176     0.0037888090971809098    1.6884667450025272E-5