% Model:              core_cross_section_solved.mph
% Version:            COMSOL 6.4.0.343
% Date:               Jul 7 2026, 11:28
% Dimension:          2
% Nodes:              6085
% Expressions:        1
% Description:        Surface
% x                       y                        Magnetic flux density norm
-0.008660257217740688     -0.004999994492253998    0.03135778957994304
-0.00850226147757749      -0.004755219746287728    0.03239013730343791
-0.00880263676196466      -0.004744807481985294    0.03134365549245505
-0.008640588158904798     -0.004498657308458298    0.032378146054249456
-0.008478539555844933     -0.0042525071349313      0.033628556384985214
-0.0089369105803953       -0.004486869616595136    0.03134133679144108
-0.008770809114438775     -0.004239344015507412    0.0323922372505325
-0.009063078673032616     -0.004226180896083523    0.031357879520100614
-0.008883846456246947     -0.003996316848744433    0.03239154382060064
-0.008704614239461277     -0.0037664528014053423   0.033627613749417765
-0.008525382022675608     -0.003536588754066253    0.03504304687820017
-0.009182822570606377     -0.003959200768693651    0.031344071716565565
-0.008999360092138848     -0.0037284956895882793   0.03237984682313343
-0.008815897613671317     -0.0034977906104829066   0.03363305816072719
-0.009294105944816415     -0.003690538577771214    0.031341074030600526
-0.009106413204667029     -0.0034589924668995617   0.032394283174102506
-0.009396928795662736     -0.003420194323316215    0.03135803640080704
-0.008511645120339615     -0.00524901494203145     0.031341635831282
-0.009197714725575266     -0.0032070110020388414   0.03239366348848944
-0.008998500655487792     -0.0029938276807614673   0.033632462179901575
-0.008799286585400324     -0.0027806443594840936   0.03505219434921858
-0.009493066379014557     -0.003143418345260559    0.03134452962515834
-0.009289506434717062     -0.002929950701496497    0.032382249922962715
-0.009085946490419565     -0.002716483057732434    0.03363918573925351
-0.009580512213946329     -0.002866073722231525    0.03134083330078541
-0.00937260639543881      -0.0026523217559807737   0.03239704336928913
-0.00965926630045805      -0.002588160454229113    0.031358233558393234
-0.00944164106056104      -0.002393213737098546    0.03239587222743337
-0.009224015820664027     -0.0021982670199679785   0.033637475648638296
-0.009006390580767017     -0.002003320302837411    0.03506165237020766
-0.009731009244731824     -0.0023036344301042514   0.031345013750845786
-0.009508985941288097     -0.0021089766565003942   0.03238472575647187
-0.009286962637844363     -0.001914318882896536    0.03364549676712316
-0.009793956061912159     -0.002019686293032809    0.0313405780396229
-0.009567534694921713     -0.0018253174629556616   0.032399875006974374
-0.009848106751999059     -0.0017363160430147863   0.03135842117544885
-0.009613823489043114     -0.001561039547994375    0.03239778905137154
-0.009379540226087165     -0.0013857630529739637   0.03364180417237915
-0.00914525696313122      -0.001210486557953552    0.03507002853153488
-0.009894818911738813     -0.001446275662897802    0.03134550133628209
-0.009656154822653694     -0.0012718714061420442   0.032386906888311154
-0.009417490733568573     -0.0010974671493862859   0.03365114592738884
-0.009932769419220219     -0.001157979759310124    0.03134027954083725
-0.009689724504005928     -9.844477408190197E-4    0.032402407893553
-0.009961958274443279     -8.71428332251753E-4     0.031358583350118645
-0.009712876519883142     -7.170220235863663E-4    0.03239938966374446
-0.009463794765323        -5.626157149209793E-4    0.03364541348099647
-0.009214713010762862     -4.0820940625559246E-4   0.03507724578624483
-0.009983231448223209     -5.78033560312112E-4     0.03134600214098074
-0.009729853394365894     -4.2508658224125356E-4   0.032388781132896616
-0.009476475340508576     -2.72139604170395E-4     0.03365611853042
-0.009995912023408781     -2.875574495615276E-4    0.03133994033424477
-0.009738237670254292     -1.3606980208519763E-4   0.032404634514083853
-0.01                     0                        0.031351969765192785
-0.009738060179781719     1.3246785716241482E-4    0.03240595881800636
-0.009476120359563434     2.649357143248296E-4     0.03365942872917459
-0.009214180539345153     3.974035714872444E-4     0.03508294007197774
-0.009995912023408783     2.875574495615274E-4     0.03133977072950347
-0.009729675903893321     4.2148463731847053E-4    0.03239025749845825
-0.009463439784377862     5.554118250754136E-4     0.03364885789342494
-0.009983231448223207     5.780335603121114E-4     0.031346303628327916
-0.009712699029410573     7.13420078663583E-4      0.03240106196157291
-0.009961958274443279     8.714283322517523E-4     0.03135879495149421
-0.009689270973280392     9.810309876738521E-4     0.032406276011906356
-0.009416583672117503     0.0010906336430959518    0.033660140819878406
-0.009143896370954616     0.0012002362985180516    0.03508527724402189
-0.009932769419220219     0.0011579797593101236    0.03134023232667125
-0.009655701291928158     0.0012684546529968769    0.03239085960517083
-0.009378633164636097     0.0013789295466836299    0.03365089274813515
-0.009894818911738809     0.0014462756628978017    0.031345901985494966
-0.009613369958317582     0.0015576227948492084    0.032401948444057145
-0.009848106751999059     0.0017363160430147863    0.03135880216939551
-0.009566953567585065     0.0018222224373366206    0.03240531209372101
-0.009285800383171068     0.0019081288316584546    0.03365795330793263
-0.009004647198757076     0.001994035225980289     0.03508268321193549
-0.009793956061912162     0.0020196862930328087    0.03134062431452169
-0.00950840481395145      0.0021058816308813537    0.03239018531977848
-0.009222853565990735     0.0021920769687298973    0.03364999078950724
-0.009731009244731822     0.0023036344301042514    0.03134545552677967
-0.009441059933224394     0.0023901187114795065    0.03240153668177968
-0.009659266300458047     0.002588160454229114     0.03135871719859371
-0.009371928189047371     0.0026495410152859323    0.03240360295512767
-0.009084590077636696     0.0027109215763427507    0.03365412062936694
-0.00879725196622602      0.00277230213739957      0.035077300907162066
-0.009580512213946327     0.0028660737222315235    0.0313409566805925
-0.009288828228325628     0.0029271699608016542    0.03238879237722814
-0.008997144242704926     0.002988266199371784     0.03364743277095621
-0.009493066379014556     0.003143418345260556     0.03134499077059488
-0.009197036519183834     0.0032042302613439987    0.032400415417972256
-0.009396928795662736     0.003420194323316212     0.03135861249186304
-0.00910552620883421      0.003456336192808312     0.032402419743092034
-0.008814123622005683     0.0034924780623004107    0.033651536145293315
-0.008522721035177159     0.00352861993179251      0.03507400401978994
-0.009294105944816416     0.0036905385777712125    0.03134128829136943
-0.00899847309630603      0.0037258394154970303    0.03238794454619916
-0.008702840247795643     0.0037611402532228473    0.03364611350120694
-0.009182822570606375     0.003959200768693649     0.031344580810563634
-0.008882959460414131     0.003993660574653186     0.032399862643072624
-0.009063078673032616     0.004226180896083523     0.03135857565914799
-0.008769697452406843     0.004236530390129627     0.032402372252223206
-0.008476316231781066     0.0042468798841757294    0.03365153797602438
-0.008936910580395302     0.004486869616595135     0.031341648543082225
-0.008639476496872864     0.0044958436830805125    0.03238822392223494
-0.008802636761964659     0.004744807481985293     0.031344244196314
-0.008501149815545556     0.004752406120909944     0.03240045050753551
-0.008660257217740688     0.004999994492253998     0.03135861549194805
-0.008511645120339615     0.00524901494203145      0.03134202436342476
-0.008591576897653105     -0.004009479968168321    0.03362576447113643
-0.008707985064492085     -0.0030326258243448135   0.0350367731868992
-0.008907199134579555     -0.003245809145622187    0.033630420624629856
-0.008616683543583846     -0.003284607289205533    0.0350338202770673
-0.008937355915644787     -0.0022624283217196387   0.03504610877947005
-0.009154981155541796     -0.002457375038850206    0.03363598230823979
-0.008868321250522554     -0.002521536340601866    0.035043055089173866
-0.008529093857958827     -0.0028257780630990244   0.036380925912937456
-0.009098968169009819     -0.0014747644729148383   0.0350548222156351
-0.009333251431965766     -0.0016500409679352497   0.033641297433908826
-0.009052679374888418     -0.0017390423878761246   0.03505211595036625
-0.009191560994885647     -6.756351234882456E-4    0.03506238813846126
-0.009440642749445786     -8.300414321536324E-4    0.033645925024213055
-0.009168408979008433     -9.430608407208988E-4    0.03506005729250561
-0.008602700592219537     -0.0025905579163228915   0.036385305139894034
-0.008671735257341768     -0.002331449897440664    0.03638761631568578
-0.008475149264160979     -0.0021413634542794616   0.03786497814786621
-0.008740769922463998     -0.002072341878558436    0.03639235421230162
-0.008793564665472304     -0.0018315397618601005   0.036397269080399766
-0.008580738750177591     -0.0016597592208827897   0.03787589624896827
-0.008839853459593705     -0.001567261846898814    0.03639923285375385
-0.00862702754429899      -0.0013954813059215035   0.03787951182587336
-0.008886142253715104     -0.0013029839319375278   0.03640365612276378
-0.008527944007169285     -0.0019005613375811256   0.03786825213960958
-0.008917801441255896     -0.0010579776787912963   0.036408792899066074
-0.008690345919380574     -9.054687996290405E-4    0.037890986121958035
-0.00846289039750525      -7.529599204667846E-4    0.039493970925647444
-0.00894095345713311      -7.90551961558643E-4     0.03641031729850806
-0.008713497935257787     -6.380430823963872E-4    0.037894180135055903
-0.008964105473010325     -5.231262443259898E-4    0.03641437208400819
-0.008658686731839782     -0.001150475052775272    0.037883083393794086
-0.009214358029817724     1.2886591223963218E-4    0.035068598816634385
-0.009476297850036005     -3.601944922782647E-6    0.03364979316984505
-0.009214535520290293     -1.3967174700798012E-4   0.035066744771020564
-0.00897436126467802      -2.7575665246269774E-4   0.03641913785274721
-0.008734009518593176     -1.4330389866980294E-4   0.03790483581124476
-0.008493657772508332     -1.0851144876908167E-5   0.03951168498406391
-0.00897418377420545      -7.218993215085424E-6    0.03642006422937265
-0.008733832028120605     1.2523376057780935E-4    0.03790737324047629
-0.008974006283732879     2.6131866603252684E-4    0.03642356797933896
-0.00848340198084064      -2.582207367402003E-4    0.039503557660084135
-0.008723753726925482     -3.9067349053309506E-4   0.03789736207893935
-0.008473146189172944     -5.055903286034924E-4    0.03949776362957026
-0.009167324427084796     9.326253895077826E-4     0.035072033872746045
-0.009440011728247683     8.230227340856827E-4     0.03365212907613517
-0.009190752483214975     6.650144804975135E-4     0.03507125480654322
-0.008962804072917569     5.088461874815598E-4     0.03642716678464706
-0.008711427606489984     6.202888034758751E-4     0.03791548178872076
-0.008460051140062399     7.317314194701905E-4     0.03952522817255231
-0.00893937601678739      7.764570964918288E-4     0.036426835229145936
-0.008687999550359805     8.878997124861441E-4     0.03791664371292153
-0.00891594796065721      0.001044068005502098     0.03642910108554362
-0.00847125335087771      4.8420389802115765E-4    0.03951848384759946
-0.008722629817305295     3.727612820268423E-4     0.037909270478524035
-0.008482455561693022     2.3667637657212473E-4    0.03951404694959759
-0.00905106358948959      0.0017294355834928767    0.035071101599437736
-0.009332216773903584     0.0016435291891710425    0.033652049334650755
-0.009097479980222103     0.0014648359410054641    0.03507192824631278
-0.008883777204601973     0.0012897695149411284    0.0364290712906289
-0.008623658038249327     0.001379302731364205     0.037916811864274064
-0.008837360813869459     0.001554369157428541     0.03642692410171448
-0.008577241647516814     0.0016439023738516177    0.03791598980700964
-0.008790944423136944     0.0018189687999159534    0.03642736794907685
-0.008655828794304566     0.0011336012219251748    0.037914556292118796
-0.00886638371040304      0.0025128798335931433    0.03506665819933621
-0.009153721821813714     0.0024514992725363245    0.03364967339627124
-0.008935515454580057     0.002253457529786716     0.03506838748165751
-0.008738103770347474     0.0020608846294160217    0.03642356946875321
-0.008471560341937868     0.0021277340328517544    0.037907941429988185
-0.008668972026170453     0.0023203069332224484    0.036420392666687444
-0.008599840281993435     0.0025797292370288755    0.03641980903752234
-0.00852440099472734      0.001885818203351686     0.03790979262065556
-0.00861423134552678      0.003276514000328197     0.035062645945595376
-0.008905633932355305     0.003240372130836097     0.03364708290944202
-0.0087057416558764       0.0030244080688638835    0.03506369415756985
-0.00852627078614414      0.0028157797278035527    0.0364155526640369
-0.008589578239788356     0.004004010068699289     0.0336464010908762
-0.008344265737414291     -0.004510445000321458    0.03362436244679736
-0.008186269997251092     -0.004265670254355188    0.0350365877244973
-0.008191520594650432     -0.005735764146773978    0.03135773202474382
-0.008055780234208708     -0.0054780484655090455   0.0323894721151735
-0.007920039873766983     -0.005220332784244112    0.03362280579507449
-0.007784299513325262     -0.004962617102979179    0.03503298839758381
-0.008355399579309532     -0.005494271493538111    0.03134327150222722
-0.008215842497053302     -0.005234673863137782    0.032377196621733904
-0.008076285414797072     -0.004975076232737452    0.0336257914631549
-0.008368271316268881     -0.004987535362495726    0.03239096897118207
-0.0076604459791952025    -0.00642787425202392     0.031357692534246084
-0.00784452050089741      -0.006201880988816104    0.0313428975564108
-0.0077284805082365295    -0.005930906108452038    0.03237647762226836
-0.00802154537271582      -0.005971177620399458    0.03134194480106777
-0.007901980555113042     -0.0056978476874309765   0.03238994769314765
-0.008182935011155293     0.004257229378221834     0.03507505811364853
-0.008342042413350424     0.004504817749565888     0.033647365438517804
-0.008367099039535949     0.004984390715179825     0.03240285745418299
-0.008073940861331206     0.004968786938105653     0.0336527115686594
-0.007780782683126466     0.004953183161031481     0.035078082209769754
-0.00821467022032037      0.0052315292158218825    0.03238900738255369
-0.007917695320301121     0.005214043489612312     0.0336497648987058
-0.00835539957930953      0.005494271493538111     0.03134393867541752
-0.008054607957475778     0.005474903818193147     0.032401533958546946
-0.00819152059465043      0.005735764146773978     0.03135866490007636
-0.007900919190608759     0.005694463044845571     0.03240284929466172
-0.00802154537271582      0.0059711776203994595    0.031342379524073954
-0.007727419143732251     0.005927521465866635     0.03238927638639906
-0.00784452050089741      0.006201880988816106     0.03134360697650783
-0.0076604459791952025    0.00642787425202392      0.03135866695243495
-0.008412344680867436     -0.0037796159208292315   0.035028556211604604
-0.008299307339059264     -0.00402264308759221     0.03502647380703681
-0.008052279835942483     -0.004497985870563185    0.035023109946333064
-0.00821027557610568      -0.004742760616529455    0.03362278209870536
-0.007918289674633872     -0.004730301486771182    0.035021946162513765
-0.007630499834229594     -0.005182416324901108    0.03501983895928901
-0.007766240194671316     -0.00544013200616604     0.03362090127084374
-0.007644648891140523     -0.004727986603708797    0.03635996862148312
-0.007778639052449132     -0.0044956709875008      0.03636011600919736
-0.007638988430264391     -0.0042610404882304186   0.03783032609228242
-0.007912629213757742     -0.004263355371292803    0.03636270017753164
-0.00802648863416192      -0.004043966574652056    0.0363652930062122
-0.007866707271072745     -0.0038222628949489247   0.03783608756420915
-0.007706925907983569     -0.0036005592152457927   0.03942668852493794
-0.00813952597597009      -0.0038009394078890777   0.036366452720395556
-0.007979744612880915     -0.003579235728185946    0.03783867950960637
-0.008252563317778261     -0.0035579122411260994   0.036370065599193355
-0.007752847850668567     -0.004041651691589671    0.037831124100214754
-0.00834649081614235      -0.003329740992820464    0.03637418810168329
-0.008167599609609092     -0.003122893231574675    0.03784774285658707
-0.007988708403075834     -0.0029160454703288856   0.0394413316996979
-0.008437792337050588     -0.003077759527959744    0.036376339727401535
-0.00825890113051733      -0.0028709117667139548   0.037851417418307214
-0.007894780904711747     -0.0031442167186345217   0.03943423343059184
-0.008073672111245003     -0.0033510644798803104   0.0378410848257197
-0.007800853406347658     -0.003372387966940157    0.03942942661075323
-0.008406114599038748     -0.0024004714731616895   0.03786107550733761
-0.008209528605857962     -0.0022103850300004874   0.03945701666935462
-0.008135921871597254     -0.0024456051767766203   0.03944952445348181
-0.00833250786477804      -0.0026356916199378223   0.03785407882183333
-0.008062315137336544     -0.0026808253235527527   0.03944438194149278
-0.008367912834882878     -0.0014879786799054792   0.03947494675138536
-0.008315118091874574     -0.0017287807966038155   0.03946667898743264
-0.008262323348866268     -0.0019695829133021515   0.03946081506164366
-0.007734171127349105     -0.0029434647748156923   0.04091890193255513
-0.0076402436289850165    -0.003171636023121328    0.04091361360154082
-0.00795824242180011      -0.0022598300631072174   0.04093565293305775
-0.0078846356875394       -0.0024950502098833502   0.04093000906854816
-0.00781102895327869      -0.0027302703566594827   0.04092474083243511
-0.007706956237742256     -0.0023092750962139474   0.04250539582358263
-0.007633349503481546     -0.0025444952429900802   0.04249976759772612
-0.00843123120996446      -9.979661736130162E-4    0.03948539254485319
-0.008399572022423668     -0.0012429724267592477   0.03947917453321099
-0.00812195429631661      -0.0015598981782151279   0.04095250420615736
-0.008069159553308305     -0.0018007002949134638   0.040946031145768905
-0.008016364810299999     -0.0020415024116118      0.04093991254772493
-0.007875995757750342     -0.0016318176765247761   0.042520927012457015
-0.007823201014742036     -0.001872619793223112    0.04251430694055703
-0.007630037219184073     -0.0017037371748344248   0.04416999157948245
-0.007765078626242146     -0.00209094744471853     0.042508277177087474
-0.008160488684788641     -0.0013371881579838647   0.040959833474142955
-0.007953064534694404     -0.0011863976360622498   0.04253637386628284
-0.007745640384600167     -0.0010356071141406351   0.04419429278649049
-0.008192147872329431     -0.001092181904837633    0.04096644756754186
-0.007984723722235194     -9.413913829160183E-4    0.04254362478227393
-0.008223807059870223     -8.471756516914014E-4    0.040973365714409946
-0.007668571607656105     -0.0014810271546031616   0.04417679802265398
-0.007707105996128135     -0.0012583171343718983   0.04418465096971097
-0.007914530146222374     -0.0014091076562935132   0.04252706885399719
-0.008242876074875434     -6.207945563665183E-4    0.04098104478410841
-0.008022861752245616     -4.886291922662518E-4    0.04255991679319097
-0.0078028474296157994    -3.5646382816598545E-4   0.04421991587568106
-0.008253131866543128     -3.734249645032261E-4    0.04098720541080007
-0.00803311754391331      -2.4125960040295968E-4   0.04256668409542334
-0.00826338765821082      -1.260553726399339E-4    0.04099371770660775
-0.007783778414610589     -5.828449234908687E-4    0.04421021593951027
-0.008003792737240407     -7.15010287591135E-4     0.042550262636940686
-0.007764709399605378     -8.092260188157519E-4    0.04420188820223937
-0.00826194103235138      1.0159424269465714E-4    0.04100590695926337
-0.008030224292194427     2.1403963026622245E-4    0.042592559088069804
-0.007798507552037474     3.264850178377878E-4     0.04426107739739849
-0.008250738821536069     3.4912176414369004E-4    0.04101062099801821
-0.008019022081379116     4.6156715171525534E-4    0.04259783287458229
-0.008239536610720757     5.966492855927229E-4     0.04101570593459736
-0.007801400803756358     -1.288142128313944E-4    0.04423247258804455
-0.0077999541778969155    9.883540250319668E-5     0.04424592507045669
-0.008031670918053868     -1.360998506836863E-5    0.04257810300576217
-0.008363538871896684     0.001468835947787282     0.039525847414229605
-0.008395709627951923     0.0012231344383482516    0.039523423428117196
-0.00842788038400716      9.774329289092211E-4     0.03952322506422141
-0.00821903722681954      8.239241205394681E-4     0.041021851982072075
-0.00797802331357668      9.161168216087457E-4     0.04261101732180817
-0.007737009400333821     0.0010083095226780232    0.04428242595625625
-0.0081868664707643       0.0010696256299784985    0.041021986383358036
-0.007945852557521442     0.0011618183310477762    0.04261147661560784
-0.008154695714709063     0.001315327139417529     0.0410225160277877
-0.0077575087842350395    7.810346877312782E-4     0.04427429692716768
-0.007998522697477898     6.888419866620005E-4     0.04260290701585072
-0.007778008168136256     5.537598527845329E-4     0.04426728417466943
-0.008205016913528264     0.002194583436287487     0.03951313853791369
-0.00840242859776085      0.002387156336658181     0.037905987521790974
-0.008257857566317738     0.0019526676067874189    0.039515184650215224
-0.00831069821910721      0.0017107517772873503    0.039519363965894234
-0.00811613701160735      0.001540135546858955     0.041016880993400215
-0.007868735151318015     0.0016114351459306279    0.04259986767159818
-0.008063296358817876     0.0017820513763590231    0.04101231153343731
-0.007815894498528542     0.001853350975430696     0.04259539346963574
-0.008010455706028402     0.0020239672058590917    0.04100814472161366
-0.007659891994130395     0.0014579263375608749    0.04426900698587396
-0.007907293854419729     0.0013866267384892018    0.04260414522288102
-0.007698450697232108     0.001233117930119449     0.04427496917465046
-0.008255289606062258     0.0028592573182075354    0.03789692172438913
-0.007984308425980378     0.002902734908611518     0.039498724832623316
-0.00843476047579452      0.0030678856592678662    0.036413114722345485
-0.008163779295712638     0.0031113632496718485    0.037895744196424566
-0.008343250165444897     0.003319991590732179     0.03641327871087162
-0.008057877921829673     0.0026666844178368414    0.03950134209649138
-0.008328859101911555     0.0026232068274328587    0.037899285428858266
-0.00813144741767897      0.002430633927062164     0.03950607220355011
-0.008296197019162583     0.004014359562745392     0.035062214115969215
-0.00840945902716987      0.003771489747268951     0.03506185202876529
-0.007953428947305292     0.0022443336833481214    0.04099615324924357
-0.007701840981082316     0.0022940839304087554    0.04257041307392782
-0.007879859451455994     0.002480384174122798     0.040990973500973506
-0.00762827148523302      0.002530134421183432     0.04256529224101378
-0.007806289955606699     0.002716434664897475     0.04098620944038587
-0.007758867739805429     0.0020737174529197257    0.04258139381312589
-0.008249009976363613     0.003548095873256758     0.036412435373527174
-0.007975298917550066     0.0035675718147210054    0.03789406938642262
-0.00770158785873652      0.0035870477561852528    0.03949619101100881
-0.008135747968356324     0.003790965688733199     0.03641157815930186
-0.007862036909542777     0.0038104416301974462    0.03789458778018126
-0.008022485960349036     0.00403383550420964      0.03641332119869555
-0.0077958280478178064    0.0033589434736606746    0.03949477963928885
-0.008069539106631354     0.003339467532196427     0.03789272566393808
-0.007890068236899092     0.0031308391911360964    0.03949560067597406
-0.007729830488097538     0.0029302642497663713    0.04097849227028904
-0.007635590299016251     0.003158368532290949     0.040977450632006
-0.007914833459136076     0.004721198566761599     0.035064559507940476
-0.008207991637340815     0.004736802343835771     0.03364760014640439
-0.008048884235145683     0.004489213972491716     0.0350635688818619
-0.007908351891260348     0.004252339900870894     0.03641592830592263
-0.007633768771365403     0.004247450423519954     0.037900402576612584
-0.007774301115250739     0.004484324495140777     0.0364158063737694
-0.0076402503392411295    0.004716309089410658     0.03641827722535462
-0.00774790284045409      0.0040289460268587       0.03789528482548394
-0.0077640065534341045    0.005433602716264738     0.03364880830144506
-0.00762709391625945      0.005172742387683905     0.03506593719489768
-0.00754793081147622      -0.006159254424264268    0.03238903656795179
-0.007435415643757237     -0.005890634596504616    0.03362176140786234
-0.007322900476038254     -0.005622014768744965    0.03503025681560454
-0.007612440515575647     -0.0056599312280879695   0.03362355780420416
-0.007071067811865478     -0.007071067811865473    0.031357714055570814
-0.007273889563805041     -0.006862249482069846    0.03134254945252185
-0.007182233646753005     -0.0065819237418639764   0.03237621933894258
-0.007090577729700969     -0.0063015980016581045   0.0336223723995093
-0.00747034895291495      -0.006647851628789328    0.03134226978397115
-0.0073755118544480865    -0.006364736126841014    0.03238938776981564
-0.007610317786567089     0.005653161942917162     0.03365272747396149
-0.007319716382525419     0.005611860840988754     0.035079148617295684
-0.007433292914748679     0.00588386531133381      0.033650982683410685
-0.007546869446971943     0.006155869781678866     0.03240208779684392
-0.007374717603854797     0.006361343915722907     0.032402198151793085
-0.007088989228514393     0.006294813579421894     0.0336512883041456
-0.00747034895291495      0.006647851628789329     0.03134270812195778
-0.007181439396159717     0.006578531530745873     0.03238890657490217
-0.00727388956380504      0.006862249482069847     0.03134324527721149
-0.007071067811865474     0.0070710678118654745    0.031358638858782754
-0.007476700155133924     -0.005402215546823037    0.0350189431409129
-0.007150481519010121     -0.00582749647132171     0.035017697629196314
-0.007262996686729103     -0.006096116299081361    0.033619787477046574
-0.007504998268955782     -0.004493356104438416    0.03782880468002786
-0.007365347646771041     -0.004258725605168034    0.039417324215313
-0.007593066487579394     -0.0038199480118865405   0.039421403636039465
-0.007479207067175217     -0.004039336808527287    0.03941832015922327
-0.007204199291233237     -0.005376228817519395    0.0363567536312962
-0.007085498106428219     -0.005130442866293825    0.03782505755657169
-0.007357998970328906     -0.005156429595597466    0.0363566130216336
-0.007239297785523888     -0.004910643644371895    0.03782629246161795
-0.007511798649424575     -0.004936630373675538    0.03635887938576488
-0.0072324974050550946    -0.0044673693751347745   0.039413805965423813
-0.007372148027239835     -0.004701999874405156    0.03782547739843481
-0.0070996471633391475    -0.004676013145101514    0.03941238774541897
-0.007053760432593923     -0.00557227145399682     0.03635613793068408
-0.007109036776617656     -0.004243014907050744    0.04089406136352472
-0.0074510714505906794    -0.003606521193181313    0.04090083842073293
-0.007337212030186503     -0.00382590998982206     0.04089733181357924
-0.007223352609782326     -0.004045298786462807    0.04089427139894439
-0.007195216993197789     -0.003612483171116833    0.042465794238457304
-0.007081357572793611     -0.0038318719677575795   0.04246241929735432
-0.007546316130620928     -0.0033998072714269637   0.04090872118267674
-0.007479633851622376     -0.002970884079302499    0.04248756166726303
-0.007385706353258288     -0.0031990553276081348   0.04248236237729841
-0.0072250965758956474    -0.0029983033837893062   0.04413729373578806
-0.007034607215835148     -0.003411731227298004    0.04411911891570326
-0.007129851895865397     -0.0032050173055436547   0.04412757794994659
-0.007290461673228038     -0.0034057692493624837   0.04247265794864889
-0.007455670053684402     -0.0023587201293206773   0.04415609558832371
-0.007301954401825232     -0.0027851089656330966   0.04414229201983409
-0.007378812227754817     -0.002571914547476887    0.04414850328264258
-0.007556491677551961     -0.00275768966114629     0.042492147600164135
-0.007513792442184293     -0.00214039247782526     0.044159355103707096
-0.007571914830684183     -0.0019220648263298422   0.04416386504033874
-0.007218466653979117     -0.0023907629145475543   0.045667138921798946
-0.007141608828049532     -0.0026039573327037635   0.045660920138399244
-0.007064751002119948     -0.002817151750859973    0.045654512877870375
-0.007396598516478275     -0.0017556567330619705   0.04568154748177154
-0.007338476127978384     -0.001973984384557388    0.04567697297914689
-0.007280353739478493     -0.0021923120360528054   0.04567236071480581
-0.007163159813772475     -0.001807576291289516    0.04725551526827189
-0.007105037425272584     -0.0020259039427849334   0.04725102219337073
-0.007043150339773209     -0.0022243548212796823   0.047244432984415136
-0.0075180332574536195    -0.001107114249163263    0.04570343829593211